<?xml version="1.0"?>
<VTKFile type="ImageData" version="0.1" byte_order="LittleEndian">
<ImageData WholeExtent="0 41 0 41 0 0" Origin="0 0 0" Spacing="1 1 1">
<Piece Extent="0 41 0 41 0 0">
<PointData>
<DataArray type="Float64" Name="array" NumberOfComponents="1" format="ascii">
0.00000000e+00 0.00000000e+00 0.00000000e+00 0.00000000e+00 0.00000000e+00 0.00000000e+00 0.00000000e+00 0.00000000e+00 0.00000000e+00 0.00000000e+00 0.00000000e+00 0.00000000e+00 0.00000000e+00 0.00000000e+00 0.00000000e+00 0.00000000e+00 0.00000000e+00 0.00000000e+00 0.00000000e+00 0.00000000e+00 0.00000000e+00 0.00000000e+00 0.00000000e+00 0.00000000e+00 0.00000000e+00 0.00000000e+00 0.00000000e+00 0.00000000e+00 0.00000000e+00 0.00000000e+00 0.00000000e+00 0.00000000e+00 0.00000000e+00 0.00000000e+00 0.00000000e+00 0.00000000e+00 0.00000000e+00 0.00000000e+00 0.00000000e+00 0.00000000e+00 0.00000000e+00 0.00000000e+00 
0.00000000e+00 1.45591191e-05 2.91182382e-05 4.36482786e-05 5.80568868e-05 7.21657917e-05 8.56784904e-05 9.81812759e-05 1.09144556e-04 1.17989950e-04 1.24165891e-04 1.27287892e-04 1.27227248e-04 1.24179426e-04 1.18595170e-04 1.11096136e-04 1.02328940e-04 9.28982352e-05 8.32883025e-05 7.38737836e-05 6.49008183e-05 5.65329914e-05 4.88478898e-05 4.18836239e-05 3.56311295e-05 3.00712315e-05 2.51607519e-05 2.08608114e-05 1.71198128e-05 1.38955260e-05 1.11378347e-05 8.80644181e-06 6.85513804e-06 5.24611441e-06 3.93663666e-06 2.89042738e-06 2.06711412e-06 1.43087840e-06 9.42777120e-07 5.66730949e-07 2.64695145e-07 0.00000000e+00 
0.00000000e+00 2.91182382e-05 5.82681138e-05 8.74179894e-05 1.16418492e-04 1.44927790e-04 1.72374168e-04 1.97902058e-04 2.20416248e-04 2.38649352e-04 2.51396600e-04 2.57758428e-04 2.57453787e-04 2.50895287e-04 2.39118047e-04 2.23460433e-04 2.05334710e-04 1.85975698e-04 1.66394506e-04 1.47306014e-04 1.29209443e-04 1.12383258e-04 9.69872031e-05 8.30554763e-05 7.05809809e-05 5.94930445e-05 4.97211486e-05 4.11626808e-05 3.37318289e-05 2.73244563e-05 2.18569359e-05 1.72327945e-05 1.33741722e-05 1.01926829e-05 7.61478504e-06 5.55795874e-06 3.95054568e-06 2.71362234e-06 1.77552627e-06 1.05945153e-06 4.92723492e-07 0.00000000e+00 
0.00000000e+00 4.36482786e-05 8.74179894e-05 1.31344646e-04 1.75271303e-04 2.18764993e-04 2.60988334e-04 3.00653058e-04 3.35969025e-04 3.64814732e-04 3.85012729e-04 3.94918408e-04 3.93934185e-04 3.82854901e-04 3.63521296e-04 3.38319052e-04 3.09573770e-04 2.79301930e-04 2.49008011e-04 2.19772520e-04 1.92247681e-04 1.66828524e-04 1.43662189e-04 1.22793593e-04 1.04144273e-04 8.76202306e-05 7.30681173e-05 6.03559419e-05 4.93203657e-05 3.98299245e-05 3.17326580e-05 2.49072853e-05 1.92160732e-05 1.45465430e-05 1.07718618e-05 7.78419283e-06 5.46348752e-06 3.70291963e-06 2.38625411e-06 1.40550507e-06 6.46747290e-07 0.00000000e+00 
0.00000000e+00 5.80568868e-05 1.16418492e-04 1.75271303e-04 2.34571925e-04 2.93872547e-04 3.52182642e-04 4.07752817e-04 4.58019437e-04 4.99627821e-04 5.28953364e-04 5.42968291e-04 5.40545475e-04 5.23068837e-04 4.93831419e-04 4.56720708e-04 4.15378778e-04 3.72650239e-04 3.30602450e-04 2.90528374e-04 2.53218487e-04 2.19020967e-04 1.88075648e-04 1.60312432e-04 1.35615711e-04 1.13775487e-04 9.46052065e-05 7.78726038e-05 6.33900695e-05 5.09422178e-05 4.03587954e-05 3.14476155e-05 2.40544986e-05 1.80055542e-05 1.31560123e-05 9.34346324e-06 6.42629299e-06 4.24831457e-06 2.66703580e-06 1.52956733e-06 6.90745042e-07 0.00000000e+00 
0.00000000e+00 7.21657917e-05 1.44927790e-04 2.18764993e-04 2.93872547e-04 3.69994709e-04 4.46116870e-04 5.20188499e-04 5.88728086e-04 6.46763167e-04 6.88204615e-04 7.07500914e-04 7.02210587e-04 6.75092530e-04 6.32014836e-04 5.79404891e-04 5.22570395e-04 4.65369821e-04 4.10223176e-04 3.58571271e-04 3.11076928e-04 2.68010332e-04 2.29307004e-04 1.94810676e-04 1.64230650e-04 1.37302607e-04 1.13704618e-04 9.31762827e-05 7.54250907e-05 6.02220393e-05 4.73126902e-05 3.64964946e-05 2.75487516e-05 2.02863564e-05 1.45031699e-05 1.00231519e-05 6.64990662e-06 4.20747866e-06 2.50400721e-06 1.36019575e-06 5.86665545e-07 0.00000000e+00 
0.00000000e+00 8.56784904e-05 1.72374168e-04 2.60988334e-04 3.52182642e-04 4.46116870e-04 5.42136548e-04 6.38156225e-04 7.29985631e-04 8.10492146e-04 8.69653198e-04 8.96620164e-04 8.85761498e-04 8.43075860e-04 7.79792438e-04 7.06313623e-04 6.30191866e-04 5.56035472e-04 4.86412849e-04 4.22456607e-04 3.64569473e-04 3.12636428e-04 2.66389874e-04 2.25392616e-04 1.89247566e-04 1.57499674e-04 1.29782863e-04 1.05702818e-04 8.49543631e-05 6.72081585e-05 5.22093564e-05 3.96769211e-05 2.93869511e-05 2.10879497e-05 1.45698065e-05 9.59606796e-06 5.95877252e-06 3.42768625e-06 1.79090752e-06 8.20542901e-07 2.98907829e-07 0.00000000e+00 
0.00000000e+00 9.81812759e-05 1.97902058e-04 3.00653058e-04 4.07752817e-04 5.20188499e-04 6.38156225e-04 7.60361145e-04 8.82566066e-04 9.95623711e-04 1.08329586e-03 1.12363023e-03 1.10113938e-03 1.03172789e-03 9.37765431e-04 8.35939539e-04 7.35847972e-04 6.42242576e-04 5.56936140e-04 4.80346860e-04 4.12107928e-04 3.51646942e-04 2.98223448e-04 2.51188545e-04 2.09867322e-04 1.73725891e-04 1.42224341e-04 1.14951136e-04 9.14813850e-05 7.14928148e-05 5.46396559e-05 4.06530961e-05 2.92341820e-05 2.01390873e-05 1.30920383e-05 7.85518240e-06 4.16142926e-06 1.76858075e-06 4.11393715e-07 -1.60377117e-07 -2.11577129e-07 0.00000000e+00 
0.00000000e+00 1.09144556e-04 2.20416248e-04 3.35969025e-04 4.58019437e-04 5.88728086e-04 7.29985631e-04 8.82566066e-04 1.04435342e-03 1.20614076e-03 1.34434639e-03 1.41346551e-03 1.36351584e-03 1.24493088e-03 1.10368493e-03 9.63831131e-04 8.35103377e-04 7.20150718e-04 6.18827554e-04 5.29886766e-04 4.51951172e-04 3.83619965e-04 3.23746614e-04 2.71270792e-04 2.25379297e-04 1.85312226e-04 1.50502103e-04 1.20395998e-04 9.45836511e-05 7.26420600e-05 5.42511090e-05 3.90616255e-05 2.67964826e-05 1.71421792e-05 9.83410741e-06 4.57119406e-06 1.08446927e-06 -9.26186207e-07 -1.74084234e-06 -1.66186795e-06 -9.80622469e-07 0.00000000e+00 
0.00000000e+00 1.17989950e-04 2.38649352e-04 3.64814732e-04 4.99627821e-04 6.46763167e-04 8.10492146e-04 9.95623711e-04 1.20614076e-03 1.44031210e-03 1.67448344e-03 1.82245234e-03 1.69452758e-03 1.48088483e-03 1.26821227e-03 1.08069078e-03 9.20583689e-04 7.84524623e-04 6.68336590e-04 5.68515117e-04 4.82190030e-04 4.07224716e-04 3.41872250e-04 2.84852227e-04 2.35066846e-04 1.91717489e-04 1.54075845e-04 1.21614229e-04 9.38151621e-05 7.02983549e-05 5.06610945e-05 3.45937272e-05 2.17479437e-05 1.18371025e-05 4.53101810e-06 -4.60672455e-07 -3.46856002e-06 -4.79822235e-06 -4.78670890e-06 -3.75631421e-06 -2.04904479e-06 0.00000000e+00 
0.00000000e+00 1.24165891e-04 2.51396600e-04 3.85012729e-04 5.28953364e-04 6.88204615e-04 8.69653198e-04 1.08329586e-03 1.34434639e-03 1.67448344e-03 2.09090813e-03 2.50733282e-03 2.11135200e-03 1.71586858e-03 1.40768940e-03 1.17013604e-03 9.82119624e-04 8.29027498e-04 7.01582357e-04 5.93647084e-04 5.01169189e-04 4.21216621e-04 3.51759866e-04 2.91199020e-04 2.38405197e-04 1.92415039e-04 1.52547345e-04 1.18169910e-04 8.88322013e-05 6.40751030e-05 4.35584503e-05 2.69042449e-05 1.38110137e-05 3.92726889e-06 -3.05057588e-06 -7.47634196e-06 -9.67440737e-06 -1.00114343e-05 -8.83632098e-06 -6.52763520e-06 -3.45421714e-06 0.00000000e+00 
0.00000000e+00 1.27287892e-04 2.57758428e-04 3.94918408e-04 5.42968291e-04 7.07500914e-04 8.96620164e-04 1.12363023e-03 1.41346551e-03 1.82245234e-03 2.50733282e-03 4.00471592e-03 2.52767904e-03 1.86365356e-03 1.47654071e-03 1.21015456e-03 1.00873127e-03 8.47994790e-04 7.15318255e-04 6.03431023e-04 5.07623020e-04 4.24817156e-04 3.52751574e-04 2.89875976e-04 2.34939883e-04 1.87078248e-04 1.45528586e-04 1.09763667e-04 7.92686301e-05 5.36781252e-05 3.25933589e-05 1.57090845e-05 2.66459727e-06 -6.84462281e-06 -1.31842485e-05 -1.66871595e-05 -1.77412932e-05 -1.67152785e-05 -1.40195055e-05 -1.00530004e-05 -5.24018856e-06 0.00000000e+00 
0.00000000e+00 1.27227248e-04 2.57453787e-04 3.93934185e-04 5.40545475e-04 7.02210587e-04 8.85761498e-04 1.10113938e-03 1.36351584e-03 1.69452758e-03 2.11135200e-03 2.52767904e-03 2.13110247e-03 1.73452591e-03 1.42478001e-03 1.18521020e-03 9.94773819e-04 8.38902140e-04 7.08381978e-04 5.97135731e-04 5.01187993e-04 4.17677407e-04 3.44659971e-04 2.80613425e-04 2.24497986e-04 1.75429486e-04 1.32812566e-04 9.60875412e-05 6.48765836e-05 3.87754088e-05 1.74918680e-05 6.74136717e-07 -1.19651054e-05 -2.07861088e-05 -2.61146459e-05 -2.83467543e-05 -2.78600672e-05 -2.50888809e-05 -2.04566083e-05 -1.44246722e-05 -7.44795790e-06 0.00000000e+00 
0.00000000e+00 1.24179426e-04 2.50895287e-04 3.82854901e-04 5.23068837e-04 6.75092530e-04 8.43075860e-04 1.03172789e-03 1.24493088e-03 1.48088483e-03 1.71586858e-03 1.86365356e-03 1.73452591e-03 1.51868456e-03 1.30284320e-03 1.11125448e-03 9.46251665e-04 8.04581151e-04 6.82171784e-04 5.75662612e-04 4.82315816e-04 4.00159536e-04 3.27597476e-04 2.63526556e-04 2.07009152e-04 1.57425728e-04 1.14204651e-04 7.69823959e-05 4.53747542e-05 1.91277925e-05 -2.07543236e-06 -1.84791833e-05 -3.04130468e-05 -3.81725186e-05 -4.21414719e-05 -4.26899228e-05 -4.02633405e-05 -3.53003388e-05 -2.82933746e-05 -1.97295908e-05 -1.01269709e-05 0.00000000e+00 
0.00000000e+00 1.18595170e-04 2.39118047e-04 3.63521296e-04 4.93831419e-04 6.32014836e-04 7.79792438e-04 9.37765431e-04 1.10368493e-03 1.26821227e-03 1.40768940e-03 1.47654071e-03 1.42478001e-03 1.30284320e-03 1.15677802e-03 1.01071283e-03 8.74524530e-04 7.50999016e-04 6.40187830e-04 5.41027115e-04 4.52375136e-04 3.73047446e-04 3.02158457e-04 2.38886172e-04 1.82691219e-04 1.33059625e-04 8.96913887e-05 5.22626369e-05 2.05932635e-05 -5.56356054e-06 -2.63741428e-05 -4.21023906e-05 -5.29803426e-05 -5.93494468e-05 -6.15465743e-05 -6.00081245e-05 -5.51732607e-05 -4.75557593e-05 -3.76692758e-05 -2.60733456e-05 -1.33244722e-05 0.00000000e+00 
0.00000000e+00 1.11096136e-04 2.23460433e-04 3.38319052e-04 4.56720708e-04 5.79404891e-04 7.06313623e-04 8.35939539e-04 9.63831131e-04 1.08069078e-03 1.17013604e-03 1.21015456e-03 1.18521020e-03 1.11125448e-03 1.01071283e-03 9.00423720e-04 7.90134608e-04 6.84832918e-04 5.86553404e-04 4.96010322e-04 4.13110165e-04 3.37617812e-04 2.69102735e-04 2.07280611e-04 1.51809928e-04 1.02531292e-04 5.92386419e-05 2.18722516e-05 -9.70077669e-06 -3.55255131e-05 -5.57551878e-05 -7.05135867e-05 -8.00564864e-05 -8.46492364e-05 -8.46872540e-05 -8.05864569e-05 -7.28658187e-05 -6.20562845e-05 -4.87546239e-05 -3.35582086e-05 -1.70975722e-05 0.00000000e+00 
0.00000000e+00 1.02328940e-04 2.05334710e-04 3.09573770e-04 4.15378778e-04 5.22570395e-04 6.30191866e-04 7.35847972e-04 8.35103377e-04 9.20583689e-04 9.82119624e-04 1.00873127e-03 9.94773819e-04 9.46251665e-04 8.74524530e-04 7.90134608e-04 7.00889626e-04 6.11644644e-04 5.25313685e-04 4.43350603e-04 3.66563612e-04 2.95210901e-04 2.29472278e-04 1.69323610e-04 1.14844412e-04 6.60169738e-05 2.29553881e-05 -1.43114958e-05 -4.56604263e-05 -7.10825276e-05 -9.05383132e-05 -1.04140282e-04 -1.12027037e-04 -1.14503758e-04 -1.11924129e-04 -1.04784630e-04 -9.36173093e-05 -7.90489360e-05 -6.17169662e-05 -4.23072924e-05 -2.15017269e-05 0.00000000e+00 
0.00000000e+00 9.28982352e-05 1.85975698e-04 2.79301930e-04 3.72650239e-04 4.65369821e-04 5.56035472e-04 6.42242576e-04 7.20150718e-04 7.84524623e-04 8.29027498e-04 8.47994790e-04 8.38902140e-04 8.04581151e-04 7.50999016e-04 6.84832918e-04 6.11644644e-04 5.35675366e-04 4.59706089e-04 3.85644476e-04 3.14582778e-04 2.47312813e-04 1.84251868e-04 1.25810531e-04 7.22271349e-05 2.38386603e-05 -1.91225677e-05 -5.63241676e-05 -8.75469050e-05 -1.12530300e-04 -1.31175255e-04 -1.43420219e-04 -1.49407621e-04 -1.49365977e-04 -1.43720871e-04 -1.32974813e-04 -1.17769852e-04 -9.87816827e-05 -7.67570124e-05 -5.24406406e-05 -2.66020431e-05 0.00000000e+00 
0.00000000e+00 8.32883025e-05 1.66394506e-04 2.49008011e-04 3.30602450e-04 4.10223176e-04 4.86412849e-04 5.56936140e-04 6.18827554e-04 6.68336590e-04 7.01582357e-04 7.15318255e-04 7.08381978e-04 6.82171784e-04 6.40187830e-04 5.86553404e-04 5.25313685e-04 4.59706089e-04 3.92322261e-04 3.24938433e-04 2.58936323e-04 1.95205703e-04 1.34529542e-04 7.74395129e-05 2.45218574e-05 -2.37668999e-05 -6.68656089e-05 -1.04315702e-04 -1.35591463e-04 -1.60316513e-04 -1.78144504e-04 -1.88957715e-04 -1.92762980e-04 -1.89831657e-04 -1.80577250e-04 -1.65623896e-04 -1.45676663e-04 -1.21550930e-04 -9.40716506e-05 -6.40962145e-05 -3.24601470e-05 0.00000000e+00 
0.00000000e+00 7.38737836e-05 1.47306014e-04 2.19772520e-04 2.90528374e-04 3.58571271e-04 4.22456607e-04 4.80346860e-04 5.29886766e-04 5.68515117e-04 5.93647084e-04 6.03431023e-04 5.97135731e-04 5.75662612e-04 5.41027115e-04 4.96010322e-04 4.43350603e-04 3.85644476e-04 3.24938433e-04 2.62978404e-04 2.01018376e-04 1.40164759e-04 8.12210854e-05 2.50069476e-05 -2.78123183e-05 -7.64634051e-05 -1.20257266e-04 -1.58395370e-04 -1.90186733e-04 -2.14927008e-04 -2.32128531e-04 -2.41443778e-04 -2.42854925e-04 -2.36574040e-04 -2.23132573e-04 -2.03232871e-04 -1.77761972e-04 -1.47651501e-04 -1.13882445e-04 -7.74014501e-05 -3.91423306e-05 0.00000000e+00 
0.00000000e+00 6.49008183e-05 1.29209443e-04 1.92247681e-04 2.53218487e-04 3.11076928e-04 3.64569473e-04 4.12107928e-04 4.51951172e-04 4.82190030e-04 5.01169189e-04 5.07623020e-04 5.01187993e-04 4.82315816e-04 4.52375136e-04 4.13110165e-04 3.66563612e-04 3.14582778e-04 2.58936323e-04 2.01018376e-04 1.42116123e-04 8.32138714e-05 2.52965761e-05 -3.08204895e-05 -8.42120609e-05 -1.34017136e-04 -1.79214416e-04 -2.18821781e-04 -2.51755935e-04 -2.77076255e-04 -2.93934939e-04 -3.01833943e-04 -3.00587966e-04 -2.90477002e-04 -2.72107562e-04 -2.46413043e-04 -2.14459962e-04 -1.77410655e-04 -1.36389335e-04 -9.24848098e-05 -4.67024952e-05 0.00000000e+00 
0.00000000e+00 5.65329914e-05 1.12383258e-04 1.66828524e-04 2.19020967e-04 2.68010332e-04 3.12636428e-04 3.51646942e-04 3.83619965e-04 4.07224716e-04 4.21216621e-04 4.24817156e-04 4.17677407e-04 4.00159536e-04 3.73047446e-04 3.37617812e-04 2.95210901e-04 2.47312813e-04 1.95205703e-04 1.40164759e-04 8.32138714e-05 2.53928542e-05 -3.24281631e-05 -8.92684263e-05 -1.44198300e-04 -1.96085278e-04 -2.43761482e-04 -2.85840657e-04 -3.20938973e-04 -3.47619390e-04 -3.64701029e-04 -3.71314166e-04 -3.67185993e-04 -3.52595809e-04 -3.28407629e-04 -2.95820713e-04 -2.56254178e-04 -2.11121604e-04 -1.61779431e-04 -1.09436008e-04 -5.51828406e-05 0.00000000e+00 
0.00000000e+00 4.88478898e-05 9.69872031e-05 1.43662189e-04 1.88075648e-04 2.29307004e-04 2.66389874e-04 2.98223448e-04 3.23746614e-04 3.41872250e-04 3.51759866e-04 3.52751574e-04 3.44659971e-04 3.27597476e-04 3.02158457e-04 2.69102735e-04 2.29472278e-04 1.84251868e-04 1.34529542e-04 8.12210854e-05 2.52965761e-05 -3.24281631e-05 -9.10274580e-05 -1.49626753e-04 -2.07131937e-04 -2.62364195e-04 -3.13822087e-04 -3.59840390e-04 -3.98469021e-04 -4.27761304e-04 -4.45877328e-04 -4.51535700e-04 -4.44199890e-04 -4.24312609e-04 -3.93071729e-04 -3.52208002e-04 -3.03590373e-04 -2.49042154e-04 -1.90156664e-04 -1.28296950e-04 -6.45882114e-05 0.00000000e+00 
0.00000000e+00 4.18836239e-05 8.30554763e-05 1.22793593e-04 1.60312432e-04 1.94810676e-04 2.25392616e-04 2.51188545e-04 2.71270792e-04 2.84852227e-04 2.91199020e-04 2.89875976e-04 2.80613425e-04 2.63526556e-04 2.38886172e-04 2.07280611e-04 1.69323610e-04 1.25810531e-04 7.74395129e-05 2.50069476e-05 -3.08204895e-05 -8.92684263e-05 -1.49626753e-04 -2.10982627e-04 -2.72338501e-04 -3.32332133e-04 -3.89322282e-04 -4.41156520e-04 -4.85335415e-04 -5.19018460e-04 -5.39511278e-04 -5.44702337e-04 -5.33765258e-04 -5.07345207e-04 -4.67358675e-04 -4.16321843e-04 -3.56857159e-04 -2.91282275e-04 -2.21508121e-04 -1.48998240e-04 -7.48730549e-05 0.00000000e+00 
0.00000000e+00 3.56311295e-05 7.05809809e-05 1.04144273e-04 1.35615711e-04 1.64230650e-04 1.89247566e-04 2.09867322e-04 2.25379297e-04 2.35066846e-04 2.38405197e-04 2.34939883e-04 2.24497986e-04 2.07009152e-04 1.82691219e-04 1.51809928e-04 1.14844412e-04 7.22271349e-05 2.45218574e-05 -2.78123183e-05 -8.42120609e-05 -1.44198300e-04 -2.07131937e-04 -2.72338501e-04 -3.38821028e-04 -4.05303556e-04 -4.69903501e-04 -5.30127992e-04 -5.82634582e-04 -6.23465843e-04 -6.48395558e-04 -6.53997112e-04 -6.38773244e-04 -6.03944284e-04 -5.52665824e-04 -4.88863536e-04 -4.16213436e-04 -3.37721666e-04 -2.55583221e-04 -1.71314836e-04 -8.59018002e-05 0.00000000e+00 
0.00000000e+00 3.00712315e-05 5.94930445e-05 8.76202306e-05 1.13775487e-04 1.37302607e-04 1.57499674e-04 1.73725891e-04 1.85312226e-04 1.91717489e-04 1.92415039e-04 1.87078248e-04 1.75429486e-04 1.57425728e-04 1.33059625e-04 1.02531292e-04 6.60169738e-05 2.38386603e-05 -2.37668999e-05 -7.64634051e-05 -1.34017136e-04 -1.96085278e-04 -2.62364195e-04 -3.32332133e-04 -4.05303556e-04 -4.80081866e-04 -5.54860176e-04 -6.26752907e-04 -6.91609078e-04 -7.43761582e-04 -7.76607999e-04 -7.84074937e-04 -7.63386322e-04 -7.16960536e-04 -6.50496800e-04 -5.70229864e-04 -4.81411382e-04 -3.87792844e-04 -2.91788261e-04 -1.94768820e-04 -9.74193099e-05 0.00000000e+00 
0.00000000e+00 2.51607519e-05 4.97211486e-05 7.30681173e-05 9.46052065e-05 1.13704618e-04 1.29782863e-04 1.42224341e-04 1.50502103e-04 1.54075845e-04 1.52547345e-04 1.45528586e-04 1.32812566e-04 1.14204651e-04 8.96913887e-05 5.92386419e-05 2.29553881e-05 -1.91225677e-05 -6.68656089e-05 -1.20257266e-04 -1.79214416e-04 -2.43761482e-04 -3.13822087e-04 -3.89322282e-04 -4.69903501e-04 -5.54860176e-04 -6.42637279e-04 -7.30414382e-04 -8.13232880e-04 -8.83363409e-04 -9.30156051e-04 -9.42308314e-04 -9.13702513e-04 -8.50014739e-04 -7.62105841e-04 -6.60147740e-04 -5.51392248e-04 -4.40250068e-04 -3.28998233e-04 -2.18552874e-04 -1.09003373e-04 0.00000000e+00 
0.00000000e+00 2.08608114e-05 4.11626808e-05 6.03559419e-05 7.78726038e-05 9.31762827e-05 1.05702818e-04 1.14951136e-04 1.20395998e-04 1.21614229e-04 1.18169910e-04 1.09763667e-04 9.60875412e-05 7.69823959e-05 5.22626369e-05 2.18722516e-05 -1.43114958e-05 -5.63241676e-05 -1.04315702e-04 -1.58395370e-04 -2.18821781e-04 -2.85840657e-04 -3.59840390e-04 -4.41156520e-04 -5.30127992e-04 -6.26752907e-04 -7.30414382e-04 -8.38979516e-04 -9.47544650e-04 -1.04625827e-03 -1.11834448e-03 -1.14126443e-03 -1.09910068e-03 -1.00726344e-03 -8.87764087e-04 -7.56844130e-04 -6.23759803e-04 -4.92804936e-04 -3.65401728e-04 -2.41435249e-04 -1.20041307e-04 0.00000000e+00 
0.00000000e+00 1.71198128e-05 3.37318289e-05 4.93203657e-05 6.33900695e-05 7.54250907e-05 8.49543631e-05 9.14813850e-05 9.45836511e-05 9.38151621e-05 8.88322013e-05 7.92686301e-05 6.48765836e-05 4.53747542e-05 2.05932635e-05 -9.70077669e-06 -4.56604263e-05 -8.75469050e-05 -1.35591463e-04 -1.90186733e-04 -2.51755935e-04 -3.20938973e-04 -3.98469021e-04 -4.85335415e-04 -5.82634582e-04 -6.91609078e-04 -8.13232880e-04 -9.47544650e-04 -1.09166259e-03 -1.23578053e-03 -1.35566302e-03 -1.40530426e-03 -1.33414463e-03 -1.19217424e-03 -1.02482276e-03 -8.55704888e-04 -6.93984309e-04 -5.41808143e-04 -3.98360697e-04 -2.61745087e-04 -1.29724069e-04 0.00000000e+00 
0.00000000e+00 1.38955260e-05 2.73244563e-05 3.98299245e-05 5.09422178e-05 6.02220393e-05 6.72081585e-05 7.14928148e-05 7.26420600e-05 7.02983549e-05 6.40751030e-05 5.36781252e-05 3.87754088e-05 1.91277925e-05 -5.56356054e-06 -3.55255131e-05 -7.10825276e-05 -1.12530300e-04 -1.60316513e-04 -2.14927008e-04 -2.77076255e-04 -3.47619390e-04 -4.27761304e-04 -5.19018460e-04 -6.23465843e-04 -7.43761582e-04 -8.83363409e-04 -1.04625827e-03 -1.23578053e-03 -1.44950167e-03 -1.66322282e-03 -1.79011655e-03 -1.63999935e-03 -1.40244505e-03 -1.16364784e-03 -9.47153612e-04 -7.54664401e-04 -5.82073369e-04 -4.24487827e-04 -2.77455882e-04 -1.37109880e-04 0.00000000e+00 
0.00000000e+00 1.11378347e-05 2.18569359e-05 3.17326580e-05 4.03587954e-05 4.73126902e-05 5.22093564e-05 5.46396559e-05 5.42511090e-05 5.06610945e-05 4.35584503e-05 3.25933589e-05 1.74918680e-05 -2.07543236e-06 -2.63741428e-05 -5.57551878e-05 -9.05383132e-05 -1.31175255e-04 -1.78144504e-04 -2.32128531e-04 -2.93934939e-04 -3.64701029e-04 -4.45877328e-04 -5.39511278e-04 -6.48395558e-04 -7.76607999e-04 -9.30156051e-04 -1.11834448e-03 -1.35566302e-03 -1.66322282e-03 -2.05758131e-03 -2.45193979e-03 -2.03326948e-03 -1.61395878e-03 -1.28015439e-03 -1.01459732e-03 -7.95436014e-04 -6.07333103e-04 -4.40055522e-04 -2.86480734e-04 -1.41257683e-04 0.00000000e+00 
0.00000000e+00 8.80644181e-06 1.72327945e-05 2.49072853e-05 3.14476155e-05 3.64964946e-05 3.96769211e-05 4.06530961e-05 3.90616255e-05 3.45937272e-05 2.69042449e-05 1.57090845e-05 6.74136717e-07 -1.84791833e-05 -4.21023906e-05 -7.05135867e-05 -1.04140282e-04 -1.43420219e-04 -1.88957715e-04 -2.41443778e-04 -3.01833943e-04 -3.71314166e-04 -4.51535700e-04 -5.44702337e-04 -6.53997112e-04 -7.84074937e-04 -9.42308314e-04 -1.14126443e-03 -1.40530426e-03 -1.79011655e-03 -2.45193979e-03 -3.92676988e-03 -2.42717999e-03 -1.73995018e-03 -1.32841362e-03 -1.03563428e-03 -8.05149229e-04 -6.11760707e-04 -4.41920423e-04 -2.87150614e-04 -1.41440120e-04 0.00000000e+00 
0.00000000e+00 6.85513804e-06 1.33741722e-05 1.92160732e-05 2.40544986e-05 2.75487516e-05 2.93869511e-05 2.92341820e-05 2.67964826e-05 2.17479437e-05 1.38110137e-05 2.66459727e-06 -1.19651054e-05 -3.04130468e-05 -5.29803426e-05 -8.00564864e-05 -1.12027037e-04 -1.49407621e-04 -1.92762980e-04 -2.42854925e-04 -3.00587966e-04 -3.67185993e-04 -4.44199890e-04 -5.33765258e-04 -6.38773244e-04 -7.63386322e-04 -9.13702513e-04 -1.09910068e-03 -1.33414463e-03 -1.63999935e-03 -2.03326948e-03 -2.42717999e-03 -2.00871416e-03 -1.59024833e-03 -1.25790422e-03 -9.94376939e-04 -7.77758488e-04 -5.92640074e-04 -4.28710701e-04 -2.78761180e-04 -1.37350853e-04 0.00000000e+00 
0.00000000e+00 5.24611441e-06 1.01926829e-05 1.45465430e-05 1.80055542e-05 2.02863564e-05 2.10879497e-05 2.01390873e-05 1.71421792e-05 1.18371025e-05 3.92726889e-06 -6.84462281e-06 -2.07861088e-05 -3.81725186e-05 -5.93494468e-05 -8.46492364e-05 -1.14503758e-04 -1.49365977e-04 -1.89831657e-04 -2.36574040e-04 -2.90477002e-04 -3.52595809e-04 -4.24312609e-04 -5.07345207e-04 -6.03944284e-04 -7.16960536e-04 -8.50014739e-04 -1.00726344e-03 -1.19217424e-03 -1.40244505e-03 -1.61395878e-03 -1.73995018e-03 -1.59024833e-03 -1.35441316e-03 -1.11857798e-03 -9.06202969e-04 -7.18867709e-04 -5.52325671e-04 -4.01521128e-04 -2.61830339e-04 -1.29202111e-04 0.00000000e+00 
0.00000000e+00 3.93663666e-06 7.61478504e-06 1.07718618e-05 1.31560123e-05 1.45031699e-05 1.45698065e-05 1.30920383e-05 9.83410741e-06 4.53101810e-06 -3.05057588e-06 -1.31842485e-05 -2.61146459e-05 -4.21414719e-05 -6.15465743e-05 -8.46872540e-05 -1.11924129e-04 -1.43720871e-04 -1.80577250e-04 -2.23132573e-04 -2.72107562e-04 -3.28407629e-04 -3.93071729e-04 -4.67358675e-04 -5.52665824e-04 -6.50496800e-04 -7.62105841e-04 -8.87764087e-04 -1.02482276e-03 -1.16364784e-03 -1.28015439e-03 -1.32841362e-03 -1.25790422e-03 -1.11857798e-03 -9.55783615e-04 -7.92989246e-04 -6.39178641e-04 -4.96273771e-04 -3.63215032e-04 -2.37836936e-04 -1.17626375e-04 0.00000000e+00 
0.00000000e+00 2.89042738e-06 5.55795874e-06 7.78419283e-06 9.34346324e-06 1.00231519e-05 9.59606796e-06 7.85518240e-06 4.57119406e-06 -4.60672455e-07 -7.47634196e-06 -1.66871595e-05 -2.83467543e-05 -4.26899228e-05 -6.00081245e-05 -8.05864569e-05 -1.04784630e-04 -1.32974813e-04 -1.65623896e-04 -2.03232871e-04 -2.46413043e-04 -2.95820713e-04 -3.52208002e-04 -4.16321843e-04 -4.88863536e-04 -5.70229864e-04 -6.60147740e-04 -7.56844130e-04 -8.55704888e-04 -9.47153612e-04 -1.01459732e-03 -1.03563428e-03 -9.94376939e-04 -9.06202969e-04 -7.92989246e-04 -6.70786541e-04 -5.48583836e-04 -4.30372656e-04 -3.17228293e-04 -2.08674577e-04 -1.03466453e-04 0.00000000e+00 
0.00000000e+00 2.06711412e-06 3.95054568e-06 5.46348752e-06 6.42629299e-06 6.64990662e-06 5.95877252e-06 4.16142926e-06 1.08446927e-06 -3.46856002e-06 -9.67440737e-06 -1.77412932e-05 -2.78600672e-05 -4.02633405e-05 -5.51732607e-05 -7.28658187e-05 -9.36173093e-05 -1.17769852e-04 -1.45676663e-04 -1.77761972e-04 -2.14459962e-04 -2.56254178e-04 -3.03590373e-04 -3.56857159e-04 -4.16213436e-04 -4.81411382e-04 -5.51392248e-04 -6.23759803e-04 -6.93984309e-04 -7.54664401e-04 -7.95436014e-04 -8.05149229e-04 -7.77758488e-04 -7.18867709e-04 -6.39178641e-04 -5.48583836e-04 -4.53994279e-04 -3.59404722e-04 -2.66649185e-04 -1.76166627e-04 -8.75643238e-05 0.00000000e+00 
0.00000000e+00 1.43087840e-06 2.71362234e-06 3.70291963e-06 4.24831457e-06 4.20747866e-06 3.42768625e-06 1.76858075e-06 -9.26186207e-07 -4.79822235e-06 -1.00114343e-05 -1.67152785e-05 -2.50888809e-05 -3.53003388e-05 -4.75557593e-05 -6.20562845e-05 -7.90489360e-05 -9.87816827e-05 -1.21550930e-04 -1.47651501e-04 -1.77410655e-04 -2.11121604e-04 -2.49042154e-04 -2.91282275e-04 -3.37721666e-04 -3.87792844e-04 -4.40250068e-04 -4.92804936e-04 -5.41808143e-04 -5.82073369e-04 -6.07333103e-04 -6.11760707e-04 -5.92640074e-04 -5.52325671e-04 -4.96273771e-04 -4.30372656e-04 -3.59404722e-04 -2.86600911e-04 -2.13797100e-04 -1.41777586e-04 -7.06242149e-05 0.00000000e+00 
0.00000000e+00 9.42777120e-07 1.77552627e-06 2.38625411e-06 2.66703580e-06 2.50400721e-06 1.79090752e-06 4.11393715e-07 -1.74084234e-06 -4.78670890e-06 -8.83632098e-06 -1.40195055e-05 -2.04566083e-05 -2.82933746e-05 -3.76692758e-05 -4.87546239e-05 -6.17169662e-05 -7.67570124e-05 -9.40716506e-05 -1.13882445e-04 -1.36389335e-04 -1.61779431e-04 -1.90156664e-04 -2.21508121e-04 -2.55583221e-04 -2.91788261e-04 -3.28998233e-04 -3.65401728e-04 -3.98360697e-04 -4.24487827e-04 -4.40055522e-04 -4.41920423e-04 -4.28710701e-04 -4.01521128e-04 -3.63215032e-04 -3.17228293e-04 -2.66649185e-04 -2.13797100e-04 -1.60159752e-04 -1.06522404e-04 -5.31546533e-05 0.00000000e+00 
0.00000000e+00 5.66730949e-07 1.05945153e-06 1.40550507e-06 1.52956733e-06 1.36019575e-06 8.20542901e-07 -1.60377117e-07 -1.66186795e-06 -3.75631421e-06 -6.52763520e-06 -1.00530004e-05 -1.44246722e-05 -1.97295908e-05 -2.60733456e-05 -3.35582086e-05 -4.23072924e-05 -5.24406406e-05 -6.40962145e-05 -7.74014501e-05 -9.24848098e-05 -1.09436008e-04 -1.28296950e-04 -1.48998240e-04 -1.71314836e-04 -1.94768820e-04 -2.18552874e-04 -2.41435249e-04 -2.61745087e-04 -2.77455882e-04 -2.86480734e-04 -2.87150614e-04 -2.78761180e-04 -2.61830339e-04 -2.37836936e-04 -2.08674577e-04 -1.76166627e-04 -1.41777586e-04 -1.06522404e-04 -7.09971992e-05 -3.54719946e-05 0.00000000e+00 
0.00000000e+00 2.64695145e-07 4.92723492e-07 6.46747290e-07 6.90745042e-07 5.86665545e-07 2.98907829e-07 -2.11577129e-07 -9.80622469e-07 -2.04904479e-06 -3.45421714e-06 -5.24018856e-06 -7.44795790e-06 -1.01269709e-05 -1.33244722e-05 -1.70975722e-05 -2.15017269e-05 -2.66020431e-05 -3.24601470e-05 -3.91423306e-05 -4.67024952e-05 -5.51828406e-05 -6.45882114e-05 -7.48730549e-05 -8.59018002e-05 -9.74193099e-05 -1.09003373e-04 -1.20041307e-04 -1.29724069e-04 -1.37109880e-04 -1.41257683e-04 -1.41440120e-04 -1.37350853e-04 -1.29202111e-04 -1.17626375e-04 -1.03466453e-04 -8.75643238e-05 -7.06242149e-05 -5.31546533e-05 -3.54719946e-05 -1.77359973e-05 0.00000000e+00 
0.00000000e+00 0.00000000e+00 0.00000000e+00 0.00000000e+00 0.00000000e+00 0.00000000e+00 0.00000000e+00 0.00000000e+00 0.00000000e+00 0.00000000e+00 0.00000000e+00 0.00000000e+00 0.00000000e+00 0.00000000e+00 0.00000000e+00 0.00000000e+00 0.00000000e+00 0.00000000e+00 0.00000000e+00 0.00000000e+00 0.00000000e+00 0.00000000e+00 0.00000000e+00 0.00000000e+00 0.00000000e+00 0.00000000e+00 0.00000000e+00 0.00000000e+00 0.00000000e+00 0.00000000e+00 0.00000000e+00 0.00000000e+00 0.00000000e+00 0.00000000e+00 0.00000000e+00 0.00000000e+00 0.00000000e+00 0.00000000e+00 0.00000000e+00 0.00000000e+00 0.00000000e+00 0.00000000e+00 
</DataArray>
</PointData>
</Piece>
</ImageData>
</VTKFile>
