<?xml version="1.0"?>
<VTKFile type="ImageData" version="0.1" byte_order="LittleEndian">
<ImageData WholeExtent="0 41 0 41 0 0" Origin="0 0 0" Spacing="1 1 1">
<Piece Extent="0 41 0 41 0 0">
<PointData>
<DataArray type="Float64" Name="array" NumberOfComponents="1" format="ascii">
0.00000000e+00 0.00000000e+00 0.00000000e+00 0.00000000e+00 0.00000000e+00 0.00000000e+00 0.00000000e+00 0.00000000e+00 0.00000000e+00 0.00000000e+00 0.00000000e+00 0.00000000e+00 0.00000000e+00 0.00000000e+00 0.00000000e+00 0.00000000e+00 0.00000000e+00 0.00000000e+00 0.00000000e+00 0.00000000e+00 0.00000000e+00 0.00000000e+00 0.00000000e+00 0.00000000e+00 0.00000000e+00 0.00000000e+00 0.00000000e+00 0.00000000e+00 0.00000000e+00 0.00000000e+00 0.00000000e+00 0.00000000e+00 0.00000000e+00 0.00000000e+00 0.00000000e+00 0.00000000e+00 0.00000000e+00 0.00000000e+00 0.00000000e+00 0.00000000e+00 0.00000000e+00 0.00000000e+00 
0.00000000e+00 1.44692913e-05 2.89392296e-05 4.33797873e-05 5.77008636e-05 7.17216846e-05 8.51495822e-05 9.75668637e-05 1.08449294e-04 1.17213122e-04 1.23313564e-04 1.26359501e-04 1.26230302e-04 1.23113684e-04 1.17469589e-04 1.09910964e-04 1.01094542e-04 9.16154929e-05 8.19688942e-05 7.25193219e-05 6.35241310e-05 5.51364645e-05 4.74452603e-05 4.04780261e-05 3.42368908e-05 2.86921382e-05 2.38113295e-05 1.95453329e-05 1.58525487e-05 1.26810116e-05 9.98959187e-06 7.72900027e-06 5.86076308e-06 4.33904094e-06 3.12738146e-06 2.18264477e-06 1.46912865e-06 9.45507475e-07 5.75788318e-07 3.19901806e-07 1.40976840e-07 0.00000000e+00 
0.00000000e+00 2.89379358e-05 5.79071988e-05 8.68790559e-05 1.15700663e-04 1.44036293e-04 1.71307713e-04 1.96668579e-04 2.19014284e-04 2.37089630e-04 2.49677794e-04 2.55894136e-04 2.55443166e-04 2.48754847e-04 2.36847775e-04 2.21079724e-04 2.02844699e-04 1.83398536e-04 1.63732723e-04 1.44584262e-04 1.26431795e-04 1.09576467e-04 9.41569000e-05 8.02299534e-05 6.77673063e-05 5.67203327e-05 4.69976381e-05 3.85174535e-05 3.11738951e-05 2.48819057e-05 1.95390463e-05 1.50656461e-05 1.13667393e-05 8.36801923e-06 5.98097113e-06 4.13406898e-06 2.74321054e-06 1.73711293e-06 1.03455111e-06 5.62842065e-07 2.42923929e-07 0.00000000e+00 
0.00000000e+00 4.33745992e-05 8.68725739e-05 1.30526576e-04 1.74186440e-04 2.17411659e-04 2.59376398e-04 2.98780391e-04 3.33849632e-04 3.62446454e-04 3.82413846e-04 3.92087236e-04 3.90893380e-04 3.79603793e-04 3.60086941e-04 3.34702309e-04 3.05805994e-04 2.75385947e-04 2.44979199e-04 2.15635975e-04 1.88042319e-04 1.62561844e-04 1.39375919e-04 1.18497559e-04 9.98820483e-05 8.34036651e-05 6.89414367e-05 5.63325087e-05 4.54436724e-05 3.61141460e-05 2.82190414e-05 2.16099838e-05 1.61725288e-05 1.17699853e-05 8.29441487e-06 5.61727135e-06 3.63253159e-06 2.21672921e-06 1.26246113e-06 6.49661403e-07 2.67876809e-07 0.00000000e+00 
0.00000000e+00 5.76878874e-05 1.15679859e-04 1.74168234e-04 2.33102627e-04 2.92047505e-04 3.49999224e-04 4.05226953e-04 4.55148164e-04 4.96432708e-04 5.25431758e-04 5.39147583e-04 5.36424042e-04 5.18680003e-04 4.89175322e-04 4.51836576e-04 4.10269169e-04 3.67360057e-04 3.25137192e-04 2.84938121e-04 2.47511985e-04 2.13252672e-04 1.82257592e-04 1.54502313e-04 1.29828589e-04 1.08070843e-04 8.90005649e-05 7.24274725e-05 5.81235979e-05 4.59119644e-05 3.55844673e-05 2.69827188e-05 1.99180897e-05 1.42449783e-05 9.78842511e-06 6.40806995e-06 3.93716925e-06 2.23481118e-06 1.13914787e-06 5.05465605e-07 1.75617926e-07 0.00000000e+00 
0.00000000e+00 7.16956447e-05 1.43990740e-04 2.17359463e-04 2.92008330e-04 3.67668928e-04 4.43346040e-04 5.16968983e-04 5.85083363e-04 6.42689589e-04 6.83732894e-04 7.02628278e-04 6.96975202e-04 6.69493449e-04 6.26097766e-04 5.73171624e-04 5.16074050e-04 4.58615703e-04 4.03271391e-04 3.51431181e-04 3.03814828e-04 2.60639874e-04 2.21899462e-04 1.87383851e-04 1.56859153e-04 1.30007856e-04 1.06562507e-04 8.62109299e-05 6.87112822e-05 5.37853368e-05 4.12241444e-05 3.07816159e-05 2.22721329e-05 1.54718372e-05 1.02062373e-05 6.26437248e-06 3.47326429e-06 1.62882808e-06 5.53853574e-07 4.85414492e-08 -7.08707105e-08 0.00000000e+00 
0.00000000e+00 8.51039513e-05 1.71224099e-04 2.59270548e-04 3.49894344e-04 4.43273838e-04 5.38734696e-04 6.34219577e-04 7.25509621e-04 8.05509390e-04 8.64159681e-04 8.90657435e-04 8.79327256e-04 8.36220827e-04 7.72517200e-04 6.98678103e-04 6.22200609e-04 5.47757316e-04 4.77857135e-04 4.13700385e-04 3.55627382e-04 3.03592533e-04 2.57264179e-04 2.16274476e-04 1.80161927e-04 1.48538922e-04 1.20975969e-04 9.71424574e-05 7.66721564e-05 5.92939562e-05 4.46956812e-05 3.26474674e-05 2.28731576e-05 1.51640002e-05 9.26400022e-06 4.96991834e-06 2.03549670e-06 2.53383292e-07 -6.17936210e-07 -7.94282672e-07 -5.13341549e-07 0.00000000e+00 
0.00000000e+00 9.74935522e-05 1.96531157e-04 2.98596659e-04 4.05024660e-04 5.16784366e-04 6.34099331e-04 7.55646191e-04 8.77226156e-04 9.89653596e-04 1.07673900e-03 1.11648278e-03 1.09345556e-03 1.02350671e-03 9.29072102e-04 8.26777309e-04 7.26292966e-04 6.32303471e-04 5.46699450e-04 4.69827528e-04 4.01401780e-04 3.40775550e-04 2.87290246e-04 2.40221523e-04 1.98975158e-04 1.62942171e-04 1.31659990e-04 1.04643914e-04 8.15409298e-05 6.19591205e-05 4.56171568e-05 3.21816925e-05 2.14090298e-05 1.29974685e-05 6.71584501e-06 2.27657751e-06 -5.54579108e-07 -2.06003613e-06 -2.48469904e-06 -2.10830241e-06 -1.18821281e-06 0.00000000e+00 
0.00000000e+00 1.08339100e-04 2.18803935e-04 3.33560273e-04 4.54810295e-04 5.84739637e-04 7.25212126e-04 8.77039702e-04 1.03806783e-03 1.19913984e-03 1.33662465e-03 1.40507912e-03 1.35446192e-03 1.23527834e-03 1.09343521e-03 9.53066066e-04 8.23830317e-04 7.08464152e-04 6.06741987e-04 5.17508497e-04 4.39302604e-04 3.70817640e-04 3.10820941e-04 2.58346211e-04 2.12493603e-04 1.72594615e-04 1.37996394e-04 1.08232280e-04 8.28097105e-05 6.13844391e-05 4.35589386e-05 2.90531161e-05 1.75191238e-05 8.70099887e-06 2.27185533e-06 -2.02487419e-06 -4.51033867e-06 -5.45424966e-06 -5.17725109e-06 -3.96601514e-06 -2.13957630e-06 0.00000000e+00 
0.00000000e+00 1.17054961e-04 2.36785208e-04 3.62018227e-04 4.95916611e-04 6.42131448e-04 8.04969835e-04 9.89203559e-04 1.19886561e-03 1.43217487e-03 1.66554065e-03 1.81269902e-03 1.68403466e-03 1.46965150e-03 1.25632434e-03 1.06815363e-03 9.07498085e-04 7.70903843e-04 6.54295848e-04 5.54076803e-04 4.67482498e-04 3.92280009e-04 3.26829667e-04 2.69753178e-04 2.20058427e-04 1.76849291e-04 1.39498692e-04 1.07383828e-04 8.00811933e-05 5.71198024e-05 3.81810426e-05 2.28710228e-05 1.09133505e-05 1.94561622e-06 -4.30454838e-06 -8.19286375e-06 -1.00076517e-05 -1.01076224e-05 -8.80404051e-06 -6.45848752e-06 -3.40407723e-06 0.00000000e+00 
0.00000000e+00 1.23095535e-04 2.49253981e-04 3.81810817e-04 5.24686798e-04 6.82899708e-04 8.63302179e-04 1.07593909e-03 1.33597533e-03 1.66515339e-03 2.08061192e-03 2.49614167e-03 2.09926248e-03 1.70296865e-03 1.39398183e-03 1.15572602e-03 9.67018348e-04 8.13357287e-04 6.85364626e-04 5.77020369e-04 4.84166206e-04 4.03990232e-04 3.34354268e-04 2.73778405e-04 2.21024385e-04 1.75245430e-04 1.35652444e-04 1.01723146e-04 7.29028204e-05 4.88325347e-05 2.90739056e-05 1.33365821e-05 1.22909129e-06 -7.52733611e-06 -1.33158520e-05 -1.64343807e-05 -1.72743089e-05 -1.61645477e-05 -1.35064884e-05 -9.65981719e-06 -5.02963940e-06 0.00000000e+00 
0.00000000e+00 1.26067326e-04 2.55324366e-04 3.91266539e-04 5.38120054e-04 7.01448517e-04 8.89400086e-04 1.11523279e-03 1.40394324e-03 1.81179589e-03 2.49561197e-03 3.99192434e-03 2.51390494e-03 1.84889652e-03 1.46090830e-03 1.19365504e-03 9.91492000e-04 8.30035155e-04 6.96784999e-04 5.84356395e-04 4.88171725e-04 4.05035106e-04 3.32818766e-04 2.69851622e-04 2.15015279e-04 1.67324265e-04 1.26142508e-04 9.08251180e-05 6.09744077e-05 3.61125830e-05 1.59454631e-05 6.30489916e-08 -1.18062313e-05 -2.00614892e-05 -2.49971429e-05 -2.70280838e-05 -2.64906554e-05 -2.38206214e-05 -1.93975481e-05 -1.36706309e-05 -7.05466319e-06 0.00000000e+00 
0.00000000e+00 1.25849404e-04 2.54695545e-04 3.89810917e-04 5.35050006e-04 6.95374220e-04 8.77573859e-04 1.09164874e-03 1.35271088e-03 1.68247494e-03 2.09804231e-03 2.51319881e-03 2.11544758e-03 1.71780417e-03 1.40699589e-03 1.16649383e-03 9.75141397e-04 8.18506334e-04 6.87253256e-04 5.75448488e-04 4.78988522e-04 3.95159699e-04 3.21886453e-04 2.57794036e-04 2.01710146e-04 1.52893845e-04 1.10618867e-04 7.44604106e-05 4.39139683e-05 1.86979263e-05 -1.59964838e-06 -1.72236179e-05 -2.85714963e-05 -3.59152463e-05 -3.96785541e-05 -4.01901561e-05 -3.79106985e-05 -3.32297346e-05 -2.66363225e-05 -1.85704953e-05 -9.53321269e-06 0.00000000e+00 
0.00000000e+00 1.22626431e-04 2.47797491e-04 3.78206538e-04 5.16894833e-04 6.67382469e-04 8.33872384e-04 1.02101808e-03 1.23277661e-03 1.46727370e-03 1.70088352e-03 1.84728633e-03 1.71688237e-03 1.49976460e-03 1.28277725e-03 1.09005438e-03 9.24073425e-04 7.81451982e-04 6.58273201e-04 5.51039681e-04 4.57174175e-04 3.74563286e-04 3.01773308e-04 2.37557187e-04 1.81137424e-04 1.31750774e-04 8.89787063e-05 5.23170104e-05 2.15231286e-05 -3.79171061e-06 -2.38183650e-05 -3.89272042e-05 -4.93408898e-05 -5.54693702e-05 -5.76116711e-05 -5.62376915e-05 -5.17322481e-05 -4.46164385e-05 -3.53475123e-05 -2.44750655e-05 -1.25076923e-05 0.00000000e+00 
0.00000000e+00 1.16858829e-04 2.35641944e-04 3.58322913e-04 4.86901145e-04 6.23388440e-04 7.69456027e-04 9.25774591e-04 1.09002450e-03 1.25295973e-03 1.39083223e-03 1.45818060e-03 1.40491155e-03 1.28159459e-03 1.13415556e-03 9.86873030e-04 8.49489767e-04 7.24954965e-04 6.13176478e-04 5.13262858e-04 4.23921820e-04 3.44145960e-04 2.72895070e-04 2.09523980e-04 1.53337458e-04 1.03993121e-04 6.10367418e-05 2.43057962e-05 -6.52946910e-06 -3.15695323e-05 -5.11227450e-05 -6.53259442e-05 -7.45425011e-05 -7.90096736e-05 -7.91817894e-05 -7.54166906e-05 -6.82539637e-05 -5.81562589e-05 -4.57175764e-05 -3.14745623e-05 -1.60411927e-05 0.00000000e+00 
0.00000000e+00 1.09155633e-04 2.19588544e-04 3.32508030e-04 4.48998394e-04 5.69757277e-04 6.94788692e-04 8.22519889e-04 9.48587081e-04 1.06360558e-03 1.15130507e-03 1.18956661e-03 1.16298863e-03 1.08739898e-03 9.85377389e-04 8.73624250e-04 7.62057645e-04 6.55515307e-04 5.56214889e-04 4.64712209e-04 3.81104287e-04 3.04991731e-04 2.36137032e-04 1.74088710e-04 1.18695307e-04 6.96303645e-05 2.68693440e-05 -9.81142484e-06 -4.03772688e-05 -6.50309627e-05 -8.37771386e-05 -9.68878130e-05 -1.04493497e-04 -1.06994944e-04 -1.04689122e-04 -9.81110968e-05 -8.77106572e-05 -7.41182185e-05 -5.78919722e-05 -3.97058076e-05 -2.01825163e-05 0.00000000e+00 
0.00000000e+00 1.00175158e-04 2.01022535e-04 3.03122270e-04 4.06774979e-04 5.11853583e-04 6.17343226e-04 7.20929194e-04 8.18093822e-04 9.01570448e-04 9.61085449e-04 9.85792135e-04 9.69921880e-04 9.19635308e-04 8.46151599e-04 7.60188937e-04 6.69400718e-04 5.78833728e-04 4.91236896e-04 4.08266803e-04 3.30558866e-04 2.58579643e-04 1.92331515e-04 1.31998522e-04 7.74811843e-05 2.89636860e-05 -1.36173544e-05 -5.00435707e-05 -8.03644968e-05 -1.04399911e-04 -1.22275131e-04 -1.33954672e-04 -1.39730499e-04 -1.39787484e-04 -1.34617600e-04 -1.24627917e-04 -1.10469965e-04 -9.27139858e-05 -7.20943987e-05 -4.92741796e-05 -2.50060651e-05 0.00000000e+00 
0.00000000e+00 9.05076207e-05 1.81204169e-04 2.72138988e-04 3.63125671e-04 4.53464583e-04 5.41801438e-04 6.25655939e-04 7.01288565e-04 7.63363745e-04 8.05674142e-04 8.22432890e-04 8.11271447e-04 7.74879960e-04 7.19404760e-04 6.51365509e-04 5.76522561e-04 4.98946687e-04 4.21632165e-04 3.46306598e-04 2.74284732e-04 2.06171860e-04 1.42610862e-04 8.38224990e-05 3.02672218e-05 -1.79079811e-05 -6.02588768e-05 -9.66400756e-05 -1.26637237e-04 -1.50170583e-04 -1.66968801e-04 -1.77141271e-04 -1.80686342e-04 -1.77989961e-04 -1.69365877e-04 -1.55456578e-04 -1.36827300e-04 -1.14272170e-04 -8.84974571e-05 -6.03408020e-05 -3.05675645e-05 0.00000000e+00 
0.00000000e+00 8.06511555e-05 1.61113939e-04 2.41103842e-04 3.20056982e-04 3.97077642e-04 4.70641436e-04 5.38604561e-04 5.97907155e-04 6.44921824e-04 6.75648643e-04 6.86993834e-04 6.77654376e-04 6.49208324e-04 6.04996661e-04 5.49345778e-04 4.86126582e-04 4.18798295e-04 3.49766587e-04 2.81042695e-04 2.13814013e-04 1.49212204e-04 8.78208330e-05 3.04133906e-05 -2.26251836e-05 -7.06039556e-05 -1.13161829e-04 -1.49620618e-04 -1.79650194e-04 -2.02676383e-04 -2.18540545e-04 -2.26955267e-04 -2.28103498e-04 -2.22120140e-04 -2.09579169e-04 -1.91005216e-04 -1.67243822e-04 -1.39049938e-04 -1.07364481e-04 -7.30240070e-05 -3.69510750e-05 0.00000000e+00 
0.00000000e+00 7.09641938e-05 1.41496590e-04 2.11048902e-04 2.78920771e-04 3.44053506e-04 4.05082104e-04 4.60082561e-04 5.06813672e-04 5.42600326e-04 5.65004771e-04 5.72037119e-04 5.63143897e-04 5.39067289e-04 5.02027780e-04 4.54629804e-04 3.99839694e-04 3.40063497e-04 2.77593193e-04 2.13973961e-04 1.50716420e-04 8.87193646e-05 2.90468759e-05 -2.76926947e-05 -8.05773911e-05 -1.29045647e-04 -1.72163866e-04 -2.09342651e-04 -2.39666537e-04 -2.62634459e-04 -2.77561729e-04 -2.84294687e-04 -2.82652242e-04 -2.73026905e-04 -2.55825442e-04 -2.31912747e-04 -2.02092837e-04 -1.67437136e-04 -1.28886524e-04 -8.74996919e-05 -4.42127285e-05 0.00000000e+00 
0.00000000e+00 6.17090302e-05 1.22817263e-04 1.82674404e-04 2.40439756e-04 2.95133508e-04 3.45425533e-04 3.89829909e-04 4.26498650e-04 4.53661036e-04 4.69527776e-04 4.73005973e-04 4.63574506e-04 4.41889156e-04 4.09141111e-04 3.67305962e-04 3.18232921e-04 2.64022805e-04 2.06238515e-04 1.46543535e-04 8.60106375e-05 2.59019583e-05 -3.30172533e-05 -8.96536542e-05 -1.43303862e-04 -1.92837377e-04 -2.37453982e-04 -2.75919583e-04 -3.07368157e-04 -3.30633188e-04 -3.45077058e-04 -3.50009512e-04 -3.45444561e-04 -3.31509794e-04 -3.08995756e-04 -2.78727492e-04 -2.41935251e-04 -1.99719246e-04 -1.53341658e-04 -1.03875508e-04 -5.24328285e-05 0.00000000e+00 
0.00000000e+00 5.30313597e-05 1.05389027e-04 1.56321911e-04 2.05030340e-04 2.50499394e-04 2.91656612e-04 3.27151816e-04 3.55689981e-04 3.75812456e-04 3.86439322e-04 3.86637812e-04 3.76258999e-04 3.55488364e-04 3.25341545e-04 2.86900181e-04 2.41763222e-04 1.91207432e-04 1.36794528e-04 7.95799255e-05 2.08806368e-05 -3.84901861e-05 -9.73641931e-05 -1.54991008e-04 -2.10147028e-04 -2.61930981e-04 -3.08895105e-04 -3.49882509e-04 -3.83253321e-04 -4.07795107e-04 -4.22103804e-04 -4.25526174e-04 -4.17606697e-04 -3.98828928e-04 -3.69920298e-04 -3.32267127e-04 -2.87201430e-04 -2.36300912e-04 -1.80885353e-04 -1.22298076e-04 -6.16430774e-05 0.00000000e+00 
0.00000000e+00 4.50273820e-05 8.93343277e-05 1.32193873e-04 1.72758168e-04 2.10177117e-04 2.43397470e-04 2.71430760e-04 2.93096006e-04 3.07459483e-04 3.13531568e-04 3.10846953e-04 2.99043965e-04 2.78463758e-04 2.49505633e-04 2.13189996e-04 1.70347328e-04 1.22249174e-04 6.97598520e-05 1.41010027e-05 -4.39894267e-05 -1.03379146e-04 -1.63379700e-04 -2.22799158e-04 -2.80782899e-04 -3.35844413e-04 -3.86721564e-04 -4.31462026e-04 -4.68352435e-04 -4.95190115e-04 -5.10366532e-04 -5.12384686e-04 -5.00930537e-04 -4.76278922e-04 -4.39836690e-04 -3.93219289e-04 -3.38485378e-04 -2.77397619e-04 -2.11713125e-04 -1.42788364e-04 -7.18792966e-05 0.00000000e+00 
0.00000000e+00 3.77157971e-05 7.47270290e-05 1.10277178e-04 1.43631341e-04 1.73914361e-04 2.00325391e-04 2.21884790e-04 2.37803801e-04 2.47153075e-04 2.49380513e-04 2.43880709e-04 2.30606149e-04 2.09478426e-04 1.81027232e-04 1.45628650e-04 1.04186920e-04 5.72710707e-05 5.89470383e-06 -4.93819958e-05 -1.07560200e-04 -1.68108014e-04 -2.29976300e-04 -2.92498070e-04 -3.54340997e-04 -4.14389821e-04 -4.70684713e-04 -5.21319469e-04 -5.63504280e-04 -5.94642098e-04 -6.11787524e-04 -6.13067018e-04 -5.97451844e-04 -5.65815765e-04 -5.19928252e-04 -4.62519278e-04 -3.96123173e-04 -3.23249764e-04 -2.45781166e-04 -1.65343687e-04 -8.30857450e-05 0.00000000e+00 
0.00000000e+00 3.11087775e-05 6.15199073e-05 9.05564682e-05 1.17454397e-04 1.41523594e-04 1.61924501e-04 1.77979209e-04 1.88843633e-04 1.93968503e-04 1.92664580e-04 1.84689220e-04 1.69678902e-04 1.47816566e-04 1.19108385e-04 8.41104512e-05 4.30742057e-05 -3.24651404e-06 -5.45269774e-05 -1.09963490e-04 -1.69239048e-04 -2.31516409e-04 -2.96406950e-04 -3.62875823e-04 -4.30178489e-04 -4.96689159e-04 -5.60778189e-04 -6.19626858e-04 -6.70145021e-04 -7.08086473e-04 -7.29475055e-04 -7.30644020e-04 -7.10341095e-04 -6.69604042e-04 -6.11823758e-04 -5.40806398e-04 -4.60447028e-04 -3.73697100e-04 -2.82946206e-04 -1.89719473e-04 -9.51631885e-05 0.00000000e+00 
0.00000000e+00 2.51664499e-05 4.96873546e-05 7.28758481e-05 9.41061841e-05 1.12637994e-04 1.27869808e-04 1.39037987e-04 1.45623020e-04 1.46926712e-04 1.42620083e-04 1.32190408e-04 1.15603672e-04 9.26070959e-05 6.34792893e-05 2.81924739e-05 -1.27540338e-05 -5.92790095e-05 -1.10792609e-04 -1.67207536e-04 -2.27916093e-04 -2.92829080e-04 -3.61259266e-04 -4.32940743e-04 -5.06807979e-04 -5.81921292e-04 -6.56112026e-04 -7.26752252e-04 -7.89362472e-04 -8.38533661e-04 -8.67382204e-04 -8.70091916e-04 -8.43664473e-04 -7.90771323e-04 -7.16956339e-04 -6.28697426e-04 -5.31161442e-04 -4.28324942e-04 -3.22587084e-04 -2.15516096e-04 -1.07847536e-04 0.00000000e+00 
0.00000000e+00 1.98696676e-05 3.91164440e-05 5.71533852e-05 7.33157211e-05 8.70523892e-05 9.76695583e-05 1.04679909e-04 1.07408677e-04 1.05495241e-04 9.83613301e-05 8.58486566e-05 6.75436871e-05 4.35288564e-05 1.35636962e-05 -2.20658109e-05 -6.34922780e-05 -1.10322881e-04 -1.62678797e-04 -2.20157953e-04 -2.82932879e-04 -3.50624553e-04 -4.23414229e-04 -5.00819903e-04 -5.82741431e-04 -6.68076004e-04 -7.55528104e-04 -8.41907651e-04 -9.22517696e-04 -9.89303496e-04 -1.03187953e-03 -1.03867697e-03 -1.00384397e-03 -9.32860439e-04 -8.36850265e-04 -7.25865522e-04 -6.07410732e-04 -4.85854144e-04 -3.63704840e-04 -2.41910292e-04 -1.20759305e-04 0.00000000e+00 
0.00000000e+00 1.51578805e-05 2.97553686e-05 4.31922712e-05 5.49509259e-05 6.43989918e-05 7.10761268e-05 7.43443995e-05 7.38365388e-05 6.89569488e-05 5.94813403e-05 4.49083537e-05 2.51935635e-05 -4.72681880e-08 -3.06875502e-05 -6.70249463e-05 -1.08826386e-04 -1.56379415e-04 -2.09441743e-04 -2.68379664e-04 -3.33032918e-04 -4.03905566e-04 -4.80953193e-04 -5.64769330e-04 -6.55261839e-04 -7.52687025e-04 -8.56016735e-04 -9.63378749e-04 -1.06949716e-03 -1.16478634e-03 -1.23215545e-03 -1.24933805e-03 -1.20017402e-03 -1.10035071e-03 -9.71718760e-04 -8.30795499e-04 -6.86761821e-04 -5.44175984e-04 -4.04467841e-04 -2.67762534e-04 -1.33279390e-04 0.00000000e+00 
0.00000000e+00 1.10064859e-05 2.14743403e-05 3.09094051e-05 3.87366226e-05 4.45165254e-05 4.76539231e-05 4.77850237e-05 4.43241334e-05 3.70146753e-05 2.53168509e-05 9.10985434e-06 -1.20763350e-05 -3.82239425e-05 -6.97438916e-05 -1.06520038e-04 -1.48958265e-04 -1.96926652e-04 -2.50914642e-04 -3.10886043e-04 -3.77522704e-04 -4.51011601e-04 -5.32342333e-04 -6.22042383e-04 -7.21462615e-04 -8.31393522e-04 -9.53064561e-04 -1.08609345e-03 -1.22785971e-03 -1.36818925e-03 -1.48311832e-03 -1.52634576e-03 -1.44759567e-03 -1.29664962e-03 -1.11922970e-03 -9.38835894e-04 -7.64924120e-04 -5.99620130e-04 -4.42386816e-04 -2.91392613e-04 -1.44649228e-04 0.00000000e+00 
0.00000000e+00 7.35100891e-06 1.42261017e-05 2.01067850e-05 2.45696339e-05 2.70657282e-05 2.72380164e-05 2.45264184e-05 1.86602961e-05 9.09333909e-06 -4.33846647e-06 -2.21474394e-05 -4.43848152e-05 -7.15295522e-05 -1.03544036e-04 -1.40908619e-04 -1.83559982e-04 -2.32053382e-04 -2.86404132e-04 -3.47357284e-04 -4.15160254e-04 -4.90922869e-04 -5.75362155e-04 -6.70243874e-04 -7.77152717e-04 -8.98993728e-04 -1.03875454e-03 -1.20067305e-03 -1.38765897e-03 -1.59754671e-03 -1.80578283e-03 -1.92582098e-03 -1.76721328e-03 -1.51983377e-03 -1.26971453e-03 -1.04071453e-03 -8.34478636e-04 -6.47212875e-04 -4.74066679e-04 -3.10883273e-04 -1.53924910e-04 0.00000000e+00 
0.00000000e+00 4.17144802e-06 7.88236064e-06 1.07219993e-05 1.21907737e-05 1.19387373e-05 9.44110772e-06 4.42233741e-06 -3.65004609e-06 -1.49631485e-05 -3.00411041e-05 -4.89763302e-05 -7.22806343e-05 -9.99654148e-05 -1.32550308e-04 -1.70010420e-04 -2.12926910e-04 -2.61322761e-04 -3.15937175e-04 -3.76978707e-04 -4.45508810e-04 -5.22157467e-04 -6.08619404e-04 -7.06418241e-04 -8.18583098e-04 -9.48674134e-04 -1.10293454e-03 -1.29018525e-03 -1.52516200e-03 -1.82855579e-03 -2.21719180e-03 -2.60394203e-03 -2.17607428e-03 -1.74575764e-03 -1.39946278e-03 -1.11982906e-03 -8.85345142e-04 -6.80686055e-04 -4.95956624e-04 -3.24148891e-04 -1.60225371e-04 0.00000000e+00 
0.00000000e+00 1.40516231e-06 2.40989358e-06 2.56694595e-06 1.53272448e-06 -1.17568997e-06 -5.83466019e-06 -1.29496801e-05 -2.27196693e-05 -3.56599580e-05 -5.18864711e-05 -7.19183984e-05 -9.57959769e-05 -1.24052185e-04 -1.56681360e-04 -1.94265459e-04 -2.36814475e-04 -2.85029745e-04 -3.39043099e-04 -3.99800435e-04 -4.67738814e-04 -5.44284913e-04 -6.30539752e-04 -7.28933185e-04 -8.42087300e-04 -9.74874550e-04 -1.13412426e-03 -1.33262549e-03 -1.59424800e-03 -1.97492360e-03 -2.63048655e-03 -4.09721190e-03 -2.58738418e-03 -1.88810497e-03 -1.46254990e-03 -1.15414018e-03 -9.06386816e-04 -6.94466612e-04 -5.04924869e-04 -3.29650678e-04 -1.62827681e-04 0.00000000e+00 
0.00000000e+00 -9.60692350e-07 -2.31349348e-06 -4.39683354e-06 -7.64692080e-06 -1.23395614e-05 -1.89444889e-05 -2.76667285e-05 -3.89990038e-05 -5.30705431e-05 -7.03902429e-05 -9.10148154e-05 -1.15472435e-04 -1.43765989e-04 -1.76463393e-04 -2.13555580e-04 -2.55696162e-04 -3.02938645e-04 -3.56106315e-04 -4.15441118e-04 -4.82087948e-04 -5.56703617e-04 -6.41057133e-04 -7.36687447e-04 -8.46684842e-04 -9.74612511e-04 -1.12676121e-03 -1.31194445e-03 -1.54493337e-03 -1.84640406e-03 -2.23320699e-03 -2.61819487e-03 -2.18865257e-03 -1.75672816e-03 -1.40890274e-03 -1.12779493e-03 -8.91898227e-04 -6.85868709e-04 -4.99811088e-04 -3.26701272e-04 -1.61497158e-04 0.00000000e+00 
0.00000000e+00 -2.98583216e-06 -6.30634159e-06 -1.03472960e-05 -1.53840127e-05 -2.18443331e-05 -2.99370056e-05 -4.01228085e-05 -5.25390744e-05 -6.76723412e-05 -8.55891422e-05 -1.06800481e-04 -1.31312959e-04 -1.59671866e-04 -1.91850644e-04 -2.28455601e-04 -2.69475950e-04 -3.15629813e-04 -3.67002397e-04 -4.24511327e-04 -4.88468244e-04 -5.60143419e-04 -6.40297714e-04 -7.30832950e-04 -8.33352111e-04 -9.50868255e-04 -1.08636363e-03 -1.24415783e-03 -1.42713696e-03 -1.63319478e-03 -1.83774249e-03 -1.95427496e-03 -1.79230307e-03 -1.54172752e-03 -1.28853797e-03 -1.05660802e-03 -8.47542448e-04 -6.57551582e-04 -4.81749502e-04 -3.15974453e-04 -1.56459680e-04 0.00000000e+00 
0.00000000e+00 -4.67629471e-06 -9.68507764e-06 -1.53019962e-05 -2.19085609e-05 -2.97167525e-05 -3.91489226e-05 -5.03484255e-05 -6.37711571e-05 -7.94906051e-05 -9.79921779e-05 -1.19285007e-04 -1.43886639e-04 -1.71757874e-04 -2.03461459e-04 -2.38940231e-04 -2.78829368e-04 -3.23102259e-04 -3.72511973e-04 -4.27133549e-04 -4.87906343e-04 -5.55104102e-04 -6.29941673e-04 -7.12994528e-04 -8.05795921e-04 -9.09144766e-04 -1.02441033e-03 -1.15118627e-03 -1.28695493e-03 -1.42149561e-03 -1.53091731e-03 -1.56885941e-03 -1.48509481e-03 -1.32934089e-03 -1.14734916e-03 -9.62556735e-04 -7.84432726e-04 -6.15045667e-04 -4.53857288e-04 -2.98987360e-04 -1.48433242e-04 0.00000000e+00 
0.00000000e+00 -6.08925917e-06 -1.24556781e-05 -1.94311748e-05 -2.72314823e-05 -3.62358936e-05 -4.65935069e-05 -5.87237576e-05 -7.27065235e-05 -8.89957405e-05 -1.07603957e-04 -1.29017637e-04 -1.53190717e-04 -1.80646179e-04 -2.11297089e-04 -2.45714659e-04 -2.83799033e-04 -3.26189324e-04 -3.72809686e-04 -4.24391140e-04 -4.80919478e-04 -5.43228934e-04 -6.11370350e-04 -6.86209837e-04 -7.67692279e-04 -8.56285246e-04 -9.50946663e-04 -1.04996094e-03 -1.14800089e-03 -1.23559289e-03 -1.29557173e-03 -1.30574785e-03 -1.24987590e-03 -1.14369229e-03 -1.00896104e-03 -8.62225745e-04 -7.12586052e-04 -5.64606828e-04 -4.19646621e-04 -2.77819353e-04 -1.38285926e-04 0.00000000e+00 
0.00000000e+00 -7.22506389e-06 -1.47300853e-05 -2.27355426e-05 -3.15742866e-05 -4.14018326e-05 -5.25969386e-05 -6.52465746e-05 -7.97689281e-05 -9.61818763e-05 -1.14938300e-04 -1.35990868e-04 -1.59825461e-04 -1.86339036e-04 -2.16052519e-04 -2.48822285e-04 -2.85208967e-04 -3.25046319e-04 -3.68936552e-04 -4.16701847e-04 -4.68968347e-04 -5.25521807e-04 -5.86925490e-04 -6.52782193e-04 -7.23290354e-04 -7.97357277e-04 -8.73909576e-04 -9.49709953e-04 -1.02022102e-03 -1.07730335e-03 -1.11068227e-03 -1.10868438e-03 -1.06553103e-03 -9.86591340e-04 -8.83032373e-04 -7.64799154e-04 -6.39414137e-04 -5.11148971e-04 -3.82508211e-04 -2.54357506e-04 -1.26960195e-04 0.00000000e+00 
0.00000000e+00 -8.13885604e-06 -1.65040568e-05 -2.53795299e-05 -3.49282891e-05 -4.54852752e-05 -5.71458403e-05 -7.02891650e-05 -8.49407379e-05 -1.01517729e-04 -1.19976497e-04 -1.40767169e-04 -1.63781221e-04 -1.89498070e-04 -2.17751665e-04 -2.49047022e-04 -2.83168230e-04 -3.20637303e-04 -3.61188357e-04 -4.05334061e-04 -4.52730256e-04 -5.03804368e-04 -5.58027609e-04 -6.15540300e-04 -6.75329665e-04 -7.36757766e-04 -7.97624411e-04 -8.55517865e-04 -9.05869897e-04 -9.43422146e-04 -9.61169623e-04 -9.53397435e-04 -9.16972501e-04 -8.54629467e-04 -7.71777961e-04 -6.74928068e-04 -5.69122371e-04 -4.58342615e-04 -3.44879746e-04 -2.30282285e-04 -1.15197348e-04 0.00000000e+00 
0.00000000e+00 -8.82630347e-06 -1.78858273e-05 -2.73502313e-05 -3.75082734e-05 -4.84651389e-05 -6.05584283e-05 -7.38235074e-05 -8.86398892e-05 -1.04971803e-04 -1.23233853e-04 -1.43320088e-04 -1.65673394e-04 -1.90120358e-04 -2.17124087e-04 -2.46445909e-04 -2.78556053e-04 -3.13146307e-04 -3.50666889e-04 -3.90715783e-04 -4.33662359e-04 -4.78937800e-04 -5.26695458e-04 -5.76021734e-04 -6.26571815e-04 -6.76719709e-04 -7.25119270e-04 -7.68867198e-04 -8.05069670e-04 -8.29345719e-04 -8.37851906e-04 -8.26763234e-04 -7.94912919e-04 -7.43176066e-04 -6.74992030e-04 -5.94012785e-04 -5.04150559e-04 -4.08219372e-04 -3.08597542e-04 -2.06694538e-04 -1.03618168e-04 0.00000000e+00 
0.00000000e+00 -9.34071029e-06 -1.88627177e-05 -2.88068362e-05 -3.92894343e-05 -5.06044742e-05 -6.27992267e-05 -7.62137374e-05 -9.08235082e-05 -1.07007060e-04 -1.24667023e-04 -1.44212056e-04 -1.65471907e-04 -1.88875280e-04 -2.14178414e-04 -2.41815468e-04 -2.71463768e-04 -3.03537801e-04 -3.37617108e-04 -3.74048801e-04 -4.12265598e-04 -4.52454868e-04 -4.93794689e-04 -5.36141595e-04 -5.78216150e-04 -6.19267372e-04 -6.57265762e-04 -6.90553181e-04 -7.16195865e-04 -7.31763336e-04 -7.34129050e-04 -7.21528263e-04 -6.92739873e-04 -6.48703188e-04 -5.91001307e-04 -5.22394522e-04 -4.45247707e-04 -3.62069652e-04 -2.74596514e-04 -1.84423687e-04 -9.25807843e-05 0.00000000e+00 
0.00000000e+00 -9.67381998e-06 -1.95392607e-05 -2.97249615e-05 -4.04796247e-05 -5.18640970e-05 -6.41773072e-05 -7.74087074e-05 -9.18996901e-05 -1.07565905e-04 -1.24782331e-04 -1.43389204e-04 -1.63784317e-04 -1.85730440e-04 -2.09633593e-04 -2.35173781e-04 -2.62742870e-04 -2.91924023e-04 -3.23057418e-04 -3.55596714e-04 -3.89765436e-04 -4.24821386e-04 -4.60762341e-04 -4.96533806e-04 -5.31744633e-04 -5.64867867e-04 -5.94947819e-04 -6.19883899e-04 -6.38164343e-04 -6.47382710e-04 -6.46061849e-04 -6.32480895e-04 -6.06407575e-04 -5.67895504e-04 -5.18394754e-04 -4.59316289e-04 -3.92728612e-04 -3.20215014e-04 -2.43510844e-04 -1.63822913e-04 -8.23538742e-05 0.00000000e+00 
0.00000000e+00 -9.87695241e-06 -1.98955435e-05 -3.02580036e-05 -4.10400061e-05 -5.24979312e-05 -6.46371978e-05 -7.77608026e-05 -9.18006398e-05 -1.07097504e-04 -1.23507193e-04 -1.41397610e-04 -1.60545716e-04 -1.81332645e-04 -2.03451736e-04 -2.27277694e-04 -2.52409910e-04 -2.79186706e-04 -3.07091828e-04 -3.36380005e-04 -3.66378046e-04 -3.97184122e-04 -4.27899481e-04 -4.58363446e-04 -4.87360708e-04 -5.14362487e-04 -5.37773746e-04 -5.56673565e-04 -5.69194898e-04 -5.74276094e-04 -5.70254740e-04 -5.56572434e-04 -5.32514030e-04 -4.98617063e-04 -4.55365915e-04 -4.04166756e-04 -3.46135440e-04 -2.82837469e-04 -2.15408934e-04 -1.45148602e-04 -7.30117994e-05 0.00000000e+00 
</DataArray>
</PointData>
</Piece>
</ImageData>
</VTKFile>
